<?xml version="1.0"?>
<VTKFile type="UnstructuredGrid"  version="0.1"  >
<UnstructuredGrid>
<Piece  NumberOfPoints="2025" NumberOfCells="9216">
<Points>
<DataArray  type="Float64"  NumberOfComponents="3"  format="ascii">0 0 0  0.04166666666666666 0 0  0.08333333333333333 0 0  0.125 0 0  0.1666666666666667 0 0  0.2083333333333333 0 0  0.25 0 0  0.2916666666666667 0 0  0.3333333333333333 0 0  0.375 0 0  0.4166666666666667 0 0  0.4583333333333333 0 0  0.5 0 0  0.5416666666666666 0 0  0.5833333333333334 0 0  0.625 0 0  0.6666666666666666 0 0  0.7083333333333334 0 0  0.75 0 0  0.7916666666666666 0 0  0.8333333333333334 0 0  0.875 0 0  0.9166666666666666 0 0  0.9583333333333334 0 0  1 0 0  0 0.125 0  0.04166666666666666 0.125 0  0.08333333333333333 0.125 0  0.125 0.125 0  0.1666666666666667 0.125 0  0.2083333333333333 0.125 0  0.25 0.125 0  0.2916666666666667 0.125 0  0.3333333333333333 0.125 0  0.375 0.125 0  0.4166666666666667 0.125 0  0.4583333333333333 0.125 0  0.5 0.125 0  0.5416666666666666 0.125 0  0.5833333333333334 0.125 0  0.625 0.125 0  0.6666666666666666 0.125 0  0.7083333333333334 0.125 0  0.75 0.125 0  0.7916666666666666 0.125 0  0.8333333333333334 0.125 0  0.875 0.125 0  0.9166666666666666 0.125 0  0.9583333333333334 0.125 0  1 0.125 0  0 0.25 0  0.04166666666666666 0.25 0  0.08333333333333333 0.25 0  0.125 0.25 0  0.1666666666666667 0.25 0  0.2083333333333333 0.25 0  0.25 0.25 0  0.2916666666666667 0.25 0  0.3333333333333333 0.25 0  0.375 0.25 0  0.4166666666666667 0.25 0  0.4583333333333333 0.25 0  0.5 0.25 0  0.5416666666666666 0.25 0  0.5833333333333334 0.25 0  0.625 0.25 0  0.6666666666666666 0.25 0  0.7083333333333334 0.25 0  0.75 0.25 0  0.7916666666666666 0.25 0  0.8333333333333334 0.25 0  0.875 0.25 0  0.9166666666666666 0.25 0  0.9583333333333334 0.25 0  1 0.25 0  0 0.375 0  0.04166666666666666 0.375 0  0.08333333333333333 0.375 0  0.125 0.375 0  0.1666666666666667 0.375 0  0.2083333333333333 0.375 0  0.25 0.375 0  0.2916666666666667 0.375 0  0.3333333333333333 0.375 0  0.375 0.375 0  0.4166666666666667 0.375 0  0.4583333333333333 0.375 0  0.5 0.375 0  0.5416666666666666 0.375 0  0.5833333333333334 0.375 0  0.625 0.375 0  0.6666666666666666 0.375 0  0.7083333333333334 0.375 0  0.75 0.375 0  0.7916666666666666 0.375 0  0.8333333333333334 0.375 0  0.875 0.375 0  0.9166666666666666 0.375 0  0.9583333333333334 0.375 0  1 0.375 0  0 0.5 0  0.04166666666666666 0.5 0  0.08333333333333333 0.5 0  0.125 0.5 0  0.1666666666666667 0.5 0  0.2083333333333333 0.5 0  0.25 0.5 0  0.2916666666666667 0.5 0  0.3333333333333333 0.5 0  0.375 0.5 0  0.4166666666666667 0.5 0  0.4583333333333333 0.5 0  0.5 0.5 0  0.5416666666666666 0.5 0  0.5833333333333334 0.5 0  0.625 0.5 0  0.6666666666666666 0.5 0  0.7083333333333334 0.5 0  0.75 0.5 0  0.7916666666666666 0.5 0  0.8333333333333334 0.5 0  0.875 0.5 0  0.9166666666666666 0.5 0  0.9583333333333334 0.5 0  1 0.5 0  0 0.625 0  0.04166666666666666 0.625 0  0.08333333333333333 0.625 0  0.125 0.625 0  0.1666666666666667 0.625 0  0.2083333333333333 0.625 0  0.25 0.625 0  0.2916666666666667 0.625 0  0.3333333333333333 0.625 0  0.375 0.625 0  0.4166666666666667 0.625 0  0.4583333333333333 0.625 0  0.5 0.625 0  0.5416666666666666 0.625 0  0.5833333333333334 0.625 0  0.625 0.625 0  0.6666666666666666 0.625 0  0.7083333333333334 0.625 0  0.75 0.625 0  0.7916666666666666 0.625 0  0.8333333333333334 0.625 0  0.875 0.625 0  0.9166666666666666 0.625 0  0.9583333333333334 0.625 0  1 0.625 0  0 0.75 0  0.04166666666666666 0.75 0  0.08333333333333333 0.75 0  0.125 0.75 0  0.1666666666666667 0.75 0  0.2083333333333333 0.75 0  0.25 0.75 0  0.2916666666666667 0.75 0  0.3333333333333333 0.75 0  0.375 0.75 0  0.4166666666666667 0.75 0  0.4583333333333333 0.75 0  0.5 0.75 0  0.5416666666666666 0.75 0  0.5833333333333334 0.75 0  0.625 0.75 0  0.6666666666666666 0.75 0  0.7083333333333334 0.75 0  0.75 0.75 0  0.7916666666666666 0.75 0  0.8333333333333334 0.75 0  0.875 0.75 0  0.9166666666666666 0.75 0  0.9583333333333334 0.75 0  1 0.75 0  0 0.875 0  0.04166666666666666 0.875 0  0.08333333333333333 0.875 0  0.125 0.875 0  0.1666666666666667 0.875 0  0.2083333333333333 0.875 0  0.25 0.875 0  0.2916666666666667 0.875 0  0.3333333333333333 0.875 0  0.375 0.875 0  0.4166666666666667 0.875 0  0.4583333333333333 0.875 0  0.5 0.875 0  0.5416666666666666 0.875 0  0.5833333333333334 0.875 0  0.625 0.875 0  0.6666666666666666 0.875 0  0.7083333333333334 0.875 0  0.75 0.875 0  0.7916666666666666 0.875 0  0.8333333333333334 0.875 0  0.875 0.875 0  0.9166666666666666 0.875 0  0.9583333333333334 0.875 0  1 0.875 0  0 1 0  0.04166666666666666 1 0  0.08333333333333333 1 0  0.125 1 0  0.1666666666666667 1 0  0.2083333333333333 1 0  0.25 1 0  0.2916666666666667 1 0  0.3333333333333333 1 0  0.375 1 0  0.4166666666666667 1 0  0.4583333333333333 1 0  0.5 1 0  0.5416666666666666 1 0  0.5833333333333334 1 0  0.625 1 0  0.6666666666666666 1 0  0.7083333333333334 1 0  0.75 1 0  0.7916666666666666 1 0  0.8333333333333334 1 0  0.875 1 0  0.9166666666666666 1 0  0.9583333333333334 1 0  1 1 0  0 0 0.125  0.04166666666666666 0 0.125  0.08333333333333333 0 0.125  0.125 0 0.125  0.1666666666666667 0 0.125  0.2083333333333333 0 0.125  0.25 0 0.125  0.2916666666666667 0 0.125  0.3333333333333333 0 0.125  0.375 0 0.125  0.4166666666666667 0 0.125  0.4583333333333333 0 0.125  0.5 0 0.125  0.5416666666666666 0 0.125  0.5833333333333334 0 0.125  0.625 0 0.125  0.6666666666666666 0 0.125  0.7083333333333334 0 0.125  0.75 0 0.125  0.7916666666666666 0 0.125  0.8333333333333334 0 0.125  0.875 0 0.125  0.9166666666666666 0 0.125  0.9583333333333334 0 0.125  1 0 0.125  0 0.125 0.125  0.04166666666666666 0.125 0.125  0.08333333333333333 0.125 0.125  0.125 0.125 0.125  0.1666666666666667 0.125 0.125  0.2083333333333333 0.125 0.125  0.25 0.125 0.125  0.2916666666666667 0.125 0.125  0.3333333333333333 0.125 0.125  0.375 0.125 0.125  0.4166666666666667 0.125 0.125  0.4583333333333333 0.125 0.125  0.5 0.125 0.125  0.5416666666666666 0.125 0.125  0.5833333333333334 0.125 0.125  0.625 0.125 0.125  0.6666666666666666 0.125 0.125  0.7083333333333334 0.125 0.125  0.75 0.125 0.125  0.7916666666666666 0.125 0.125  0.8333333333333334 0.125 0.125  0.875 0.125 0.125  0.9166666666666666 0.125 0.125  0.9583333333333334 0.125 0.125  1 0.125 0.125  0 0.25 0.125  0.04166666666666666 0.25 0.125  0.08333333333333333 0.25 0.125  0.125 0.25 0.125  0.1666666666666667 0.25 0.125  0.2083333333333333 0.25 0.125  0.25 0.25 0.125  0.2916666666666667 0.25 0.125  0.3333333333333333 0.25 0.125  0.375 0.25 0.125  0.4166666666666667 0.25 0.125  0.4583333333333333 0.25 0.125  0.5 0.25 0.125  0.5416666666666666 0.25 0.125  0.5833333333333334 0.25 0.125  0.625 0.25 0.125  0.6666666666666666 0.25 0.125  0.7083333333333334 0.25 0.125  0.75 0.25 0.125  0.7916666666666666 0.25 0.125  0.8333333333333334 0.25 0.125  0.875 0.25 0.125  0.9166666666666666 0.25 0.125  0.9583333333333334 0.25 0.125  1 0.25 0.125  0 0.375 0.125  0.04166666666666666 0.375 0.125  0.08333333333333333 0.375 0.125  0.125 0.375 0.125  0.1666666666666667 0.375 0.125  0.2083333333333333 0.375 0.125  0.25 0.375 0.125  0.2916666666666667 0.375 0.125  0.3333333333333333 0.375 0.125  0.375 0.375 0.125  0.4166666666666667 0.375 0.125  0.4583333333333333 0.375 0.125  0.5 0.375 0.125  0.5416666666666666 0.375 0.125  0.5833333333333334 0.375 0.125  0.625 0.375 0.125  0.6666666666666666 0.375 0.125  0.7083333333333334 0.375 0.125  0.75 0.375 0.125  0.7916666666666666 0.375 0.125  0.8333333333333334 0.375 0.125  0.875 0.375 0.125  0.9166666666666666 0.375 0.125  0.9583333333333334 0.375 0.125  1 0.375 0.125  0 0.5 0.125  0.04166666666666666 0.5 0.125  0.08333333333333333 0.5 0.125  0.125 0.5 0.125  0.1666666666666667 0.5 0.125  0.2083333333333333 0.5 0.125  0.25 0.5 0.125  0.2916666666666667 0.5 0.125  0.3333333333333333 0.5 0.125  0.375 0.5 0.125  0.4166666666666667 0.5 0.125  0.4583333333333333 0.5 0.125  0.5 0.5 0.125  0.5416666666666666 0.5 0.125  0.5833333333333334 0.5 0.125  0.625 0.5 0.125  0.6666666666666666 0.5 0.125  0.7083333333333334 0.5 0.125  0.75 0.5 0.125  0.7916666666666666 0.5 0.125  0.8333333333333334 0.5 0.125  0.875 0.5 0.125  0.9166666666666666 0.5 0.125  0.9583333333333334 0.5 0.125  1 0.5 0.125  0 0.625 0.125  0.04166666666666666 0.625 0.125  0.08333333333333333 0.625 0.125  0.125 0.625 0.125  0.1666666666666667 0.625 0.125  0.2083333333333333 0.625 0.125  0.25 0.625 0.125  0.2916666666666667 0.625 0.125  0.3333333333333333 0.625 0.125  0.375 0.625 0.125  0.4166666666666667 0.625 0.125  0.4583333333333333 0.625 0.125  0.5 0.625 0.125  0.5416666666666666 0.625 0.125  0.5833333333333334 0.625 0.125  0.625 0.625 0.125  0.6666666666666666 0.625 0.125  0.7083333333333334 0.625 0.125  0.75 0.625 0.125  0.7916666666666666 0.625 0.125  0.8333333333333334 0.625 0.125  0.875 0.625 0.125  0.9166666666666666 0.625 0.125  0.9583333333333334 0.625 0.125  1 0.625 0.125  0 0.75 0.125  0.04166666666666666 0.75 0.125  0.08333333333333333 0.75 0.125  0.125 0.75 0.125  0.1666666666666667 0.75 0.125  0.2083333333333333 0.75 0.125  0.25 0.75 0.125  0.2916666666666667 0.75 0.125  0.3333333333333333 0.75 0.125  0.375 0.75 0.125  0.4166666666666667 0.75 0.125  0.4583333333333333 0.75 0.125  0.5 0.75 0.125  0.5416666666666666 0.75 0.125  0.5833333333333334 0.75 0.125  0.625 0.75 0.125  0.6666666666666666 0.75 0.125  0.7083333333333334 0.75 0.125  0.75 0.75 0.125  0.7916666666666666 0.75 0.125  0.8333333333333334 0.75 0.125  0.875 0.75 0.125  0.9166666666666666 0.75 0.125  0.9583333333333334 0.75 0.125  1 0.75 0.125  0 0.875 0.125  0.04166666666666666 0.875 0.125  0.08333333333333333 0.875 0.125  0.125 0.875 0.125  0.1666666666666667 0.875 0.125  0.2083333333333333 0.875 0.125  0.25 0.875 0.125  0.2916666666666667 0.875 0.125  0.3333333333333333 0.875 0.125  0.375 0.875 0.125  0.4166666666666667 0.875 0.125  0.4583333333333333 0.875 0.125  0.5 0.875 0.125  0.5416666666666666 0.875 0.125  0.5833333333333334 0.875 0.125  0.
[...]
<PointData  Vectors="u"> 
<DataArray  type="Float64"  Name="u"  NumberOfComponents="3" format="ascii">1.0000000000000001e-01 2.0000000000000001e-01 0.0000000000000000e+00  1.1052944798212219e-01 1.9613096793771120e-01 3.8794464084049582e-03  1.2023205001592770e-01 1.9348411350584055e-01 9.9719882261735688e-03  1.2898107461753353e-01 1.9184306011820557e-01 1.7752233581974499e-02  1.3671821187905281e-01 1.9106318472597181e-01 2.6855322494913396e-02  1.4341908409850274e-01 1.9104533718444291e-01 3.7024487899953155e-02  1.4907226633998397e-01 1.9172146114572569e-01 4.8075738692647217e-02  1.5366624047031507e-01 1.9304580596547674e-01 5.9874074493080458e-02  1.5718091172941440e-01 1.9498884027080904e-01 7.2317174703052975e-02  1.5958167455294445e-01 1.9753243402833526e-01 8.5323790782144665e-02  1.6081486771666439e-01 2.0066549409604054e-01 9.8824950926584956e-02  1.6080403780150224e-01 2.0437948340902742e-01 1.1275663862117927e-01  1.5944689172791832e-01 2.0866332057197726e-01 1.2705292866626511e-01  1.5661328483965464e-01 2.1349712318270941e-01 1.4163872598311289e-01  1.5214517041470174e-01 2.1884415019480827e-01 1.5642128798267652e-01  1.4586023512276275e-01 2.2464011735917999e-01 1.7127961657105023e-01  1.3756203234168901e-01 2.3077881150152124e-01 1.8605053983173911e-01  1.2706070210040096e-01 2.3709270530800139e-01 2.0050983358601102e-01  1.1420921816361768e-01 2.4332749403750070e-01 2.1434627799498565e-01  9.8958820113322896e-02 2.4911149249555978e-01 2.2712739606088750e-01  8.1431091025762112e-02 2.5392786635212078e-01 2.3826190922742854e-01  6.1992397574126085e-02 2.5711382268539179e-01 2.4698270992841212e-01  4.1303236398940832e-02 2.5792881877082852e-01 2.5239937631431159e-01  2.0291008741604454e-02 2.5570750680569143e-01 2.5364322162713537e-01  0.0000000000000000e+00 2.5000000000000000e-01 2.5000000000000000e-01  1.0000000000000001e-01 2.0000000000000001e-01 0.0000000000000000e+00  1.1109550327133220e-01 1.9792558625035006e-01 3.4074336782062313e-03  1.2069248449538884e-01 1.9620392752641827e-01 9.2971442115270565e-03  1.2890324419594726e-01 1.9496434978849853e-01 1.6980210066746267e-02  1.3583149946962905e-01 1.9424914728812231e-01 2.6023357297513150e-02  1.4155815905883440e-01 1.9406358423520667e-01 3.6142154830326588e-02  1.4613903432889444e-01 1.9439856945866635e-01 4.7141925881168466e-02  1.4960621587705478e-01 1.9524070213079350e-01 5.8883657465361762e-02  1.5197009095699660e-01 1.9657622840160163e-01 7.1263443302718193e-02  1.5322099261275476e-01 1.9839190117093625e-01 8.4199405470458275e-02  1.5333026147183298e-01 2.0067412121457270e-01 9.7622722729509184e-02  1.5225083138095893e-01 2.0340697687925768e-01 1.1147074736709280e-01  1.4991762837615721e-01 2.0656943513120296e-01 1.2568086661831745e-01  1.4624823227467587e-01 2.1013177359047741e-01 1.4018406504322550e-01  1.4114445874380116e-01 2.1405130549223561e-01 1.5489720975301052e-01  1.3449581841323863e-01 2.1826752681509687e-01 1.6971296151083584e-01  1.2618621886815409e-01 2.2269704633964776e-01 1.8448591351299792e-01  1.1610576089888949e-01 2.2722913447851467e-01 1.9901308392674516e-01  1.0416984519665319e-01 2.3172357412379607e-01 2.1300642076639634e-01  9.0347458210552054e-02 2.3601379560984170e-01 2.2605538146637066e-01  7.4698216667286960e-02 2.3991975730236198e-01 2.3758153712910471e-01  5.7412220542270194e-02 2.4327553630530793e-01 2.4679932558028655e-01  3.8839217033735648e-02 2.4597438018875373e-01 2.5271661190028305e-01  1.9489354862693407e-02 2.4803164513554646e-01 2.5419898770329907e-01  0.0000000000000000e+00 2.4967815066964749e-01 2.5000000000000000e-01  1.0000000000000001e-01 2.0000000000000001e-01 0.0000000000000000e+00  1.1071125719044700e-01 1.9852010267698111e-01 3.4331898348005903e-03  1.1995918232472866e-01 1.9728265216250121e-01 9.3472224897154788e-03  1.2777577300662929e-01 1.9633331466607296e-01 1.7045543816160944e-02  1.3424324094520196e-01 1.9570637625052062e-01 2.6092033287867248e-02  1.3944636278375186e-01 1.9542381687551066e-01 3.6201706396255078e-02  1.4345502489754053e-01 1.9549795558276398e-01 4.7179994187489326e-02  1.4631916414140389e-01 1.9593433763754581e-01 5.8887674954967384e-02  1.4806851528387929e-01 1.9673384102880798e-01 7.1219810986867027e-02  1.4871390344370300e-01 1.9789385236704934e-01 8.4092492585447251e-02  1.4824871894025979e-01 1.9940864332507324e-01 9.7433916796956177e-02  1.4665006986037260e-01 2.0126914395190557e-01 1.1117772497599739e-01  1.4387951817386224e-01 2.0346231572921428e-01 1.2525724148877726e-01  1.3988354141825454e-01 2.0597033946204904e-01 1.3959960570579033e-01  1.3459406774971261e-01 2.0876987768053473e-01 1.5411891730810109e-01  1.2792970728961001e-01 2.1183175818702399e-01 1.6870747967925720e-01  1.1979874062000632e-01 2.1512155058602872e-01 1.8322403195634879e-01  1.1010561044209499e-01 2.1860164132305585e-01 1.9747748414577296e-01  9.8763582914515993e-02 2.2223547503666372e-01 2.1120415049780486e-01  8.5717015457536086e-02 2.2599446672233794e-01 2.2403623033793482e-01  7.0976010983089907e-02 2.2986751108239234e-01 2.3546092061461935e-01  5.4661874743946369e-02 2.3387204690398447e-01 2.4477683086502983e-01  3.7053021122366192e-02 2.3806500491038882e-01 2.5106983828856466e-01  1.8614226014935155e-02 2.4255292233964509e-01 2.5323508259326166e-01  0.0000000000000000e+00 2.4750180177419967e-01 2.5000000000000000e-01  1.0000000000000001e-01 2.0000000000000001e-01 0.0000000000000000e+00  1.1039433473147273e-01 1.9870645769955300e-01 3.5154561777480300e-03  1.1933229572668430e-01 1.9759658027562221e-01 9.4818353928172571e-03  1.2683995175506177e-01 1.9668818397963980e-01 1.7211975660087687e-02  1.3299268587914145e-01 1.9599758016405014e-01 2.6272452903422082e-02  1.3787206931474028e-01 1.9553876540669721e-01 3.6378966787965920e-02  1.4154886788958387e-01 1.9532317060512708e-01 4.7336859252820496e-02  1.4407734006588929e-01 1.9535978103302568e-01 5.9006247739645190e-02  1.4549424457237112e-01 1.9565541725615546e-01 7.1280942655860421e-02  1.4581956022606846e-01 1.9621504245170476e-01 8.4075213658204556e-02  1.4505755239027129e-01 1.9704204664512057e-01 9.7315010398566035e-02  1.4319759604933158e-01 1.9813852524817790e-01 1.1093158987858942e-01  1.4021456179076491e-01 1.9950561860777075e-01 1.2485621884206738e-01  1.3606881587551020e-01 2.0114401831837680e-01 1.3901498377341634e-01  1.3070610712652300e-01 2.0305477938622848e-01 1.5332288577804062e-01  1.2405790616767269e-01 2.0524060240954339e-01 1.6767637285821291e-01  1.1604321581158060e-01 2.0770775348310277e-01 1.8194326132559926e-01  1.0657356153640594e-01 2.1046874389165518e-01 1.9594857873245108e-01  9.5563781539070761e-02 2.1354575463916736e-01 2.0945421512114429e-01  8.2952022347409352e-02 2.1697452205026899e-01 2.2212968736955596e-01  6.8731908760828409e-02 2.2080802388672918e-01 2.3351209816193338e-01  5.2996219819588332e-02 2.2511905042253780e-01 2.4295882651470821e-01  3.5983742929078411e-02 2.3000117448346113e-01 2.4960999221378360e-01  1.8114282705419670e-02 2.3556922269932115e-01 2.5238675434663349e-01  0.0000000000000000e+00 2.4196207751221455e-01 2.5000000000000000e-01  1.0000000000000001e-01 2.0000000000000001e-01 0.0000000000000000e+00  1.1023750210941442e-01 1.9873685921063150e-01 3.5310925817720372e-03  1.1901921356167573e-01 1.9760515535125261e-01 9.4982838546817123e-03  1.2637121507686500e-01 1.9660881481145076e-01 1.7219773765991760e-02  1.3236723362196781e-01 1.9575370944065648e-01 2.6263777678766944e-02  1.3708730040633921e-01 1.9504726409871337e-01 3.6345574089518676e-02  1.4060162961445832e-01 1.9449802568136726e-01 4.7269028001248499e-02  1.4296525316137698e-01 1.9411527674406986e-01 5.8892321883990476e-02  1.4421706901919842e-01 1.9390877443284624e-01 7.1107251105195918e-02  1.4438045460479235e-01 1.9388866681092815e-01 8.3826264221616806e-02  1.4346416601349340e-01 1.9406561641665385e-01 9.6973923039260820e-02  1.4146297979252567e-01 1.9445115093128976e-01 1.1048077765385543e-01  1.3835790761282629e-01 1.9505825977388344e-01 1.2427835397065183e-01  1.3411604627630397e-01 1.9590225804502975e-01 1.3829430786504984e-01  1.2869033563030624e-01 1.9700194038287472e-01 1.5244694064817235e-01  1.2201976870760045e-01 1.9838104155471742e-01 1.6663824343343908e-01  1.1403100603310944e-01 2.0007000099743380e-01 1.8074443718665667e-01  1.0464294970210564e-01 2.0210798499926030e-01 1.9460255943496560e-01  9.3776615296024601e-02 2.0454503964450035e-01 2.0799100542492485e-01  8.1373321748964347e-02 2.0744412101684587e-01 2.2060130850201379e-01  6.7423925228961637e-02 2.1088260184746388e-01 2.3199896784720989e-01  5.2008977983806812e-02 2.1495282204694505e-01 2.4157572641628183e-01  3.5343576204103284e-02 2.1976166656157972e-01 2.4850762491565540e-01  1.7814866657460845e-02 2.2543032764366558e-01 2.5174264214215342e-01  0.0000000000000000e+00 2.3209670466625287e-01 2.5000000000000000e-01  1.0000000000000001e-01 2.0000000000000001e-01 0.0000000000000000e+00  1.1027439988405877e-01 1.9877825667972579e-01 3.4430685783580191e-03  1.1909657644301115e-01 1.9762413892437591e-01 9.3350476710568030e-03  1.2648582673696204e-01 1.9652928007524734e-01 1.6995270046210462e-02  1.3251073681999165e-01 1.9549232733912042e-01 2.5989862158442324e-02  1.3724776725325280e-01 1.9451784499108768e-01 3.6030000562450155e-02  1.4076505844293943e-01 1.9361478591851347e-01 4.6914670520201679e-02  1.4311691999690337e-01 1.9279506868504001e-01 5.8497361576876350e-02  1.4434266505197241e-01 1.9207252674528130e-01 7.0666016038003918e-02  1.4446697205774212e-01 1.9146232072413091e-01 8.3330468934839752e-02  1.4350052994426538e-01 1.9098081494329455e-01 9.6414129793548270e-02  1.4144045505983419e-01 1.9064588226430726e-01 1.0984796044619871e-01  1.3827033835538591e-01 1.9047758975335866e-01 1.2356547945765864e-01  1.3396001157364124e-01 1.9049921418848098e-01 1.3749785567227629e-01  1.2846532929536245e-01 1.9073853120134732e-01 1.5156827580296287e-01  1.2172852735232539e-01 1.9122931093244291e-01 1.6568473696054151e-01  1.1368010136026915e-01 1.9201293778171907e-01 1.7973022389201163e-01  1.0424369777076031e-01 1.9314005857402958e-01 1.9354884836400216e-01  9.3346193665793595e-02 1.9467216234451673e-01 2.0692595212146370e-01  8.0935688794778235e-02 1.9668301431088381e-01 2.1955967135901425e-01  6.7009741246445625e-02 1.9925990254222342e-01 2.3102219620411119e-01  5.1653480369469235e-02 2.0250468819823395e-01 2.4071389900093282e-01  3.5081849030104945e-02 2.0653467355784808e-01 2.4782566239793608e-01  1.7675637984334833e-02 2.1148338226184205e-01 2.5133297740570654e-01  0.0000000000000000e+00 2.1750196606755146e-01 2.5000000000000000e-01  1.0000000000000001e-01 2.0000000000000001e-01 0.0000000000000000e+00  1.1058344084288298e-01 1.9901702130955659e-01 3.2415366521259281e-03  1.1971045255483478e-01 1.9799094655518415e-01 8.9962391610128468e-03  1.2738645726709949e-01 1.9689575924886468e-01 1.6573302088102107e-02  1.3367060733992706e-01 1.9572927504492701e-01 2.5524078557365298e-02  1.3863379515974172e-01 1.9450426396476223e-01 3.5544305564702658e-02  1.4234185784907624e-01 1.9324119763500394e-01 4.6419402773443086e-02  1.4484926718700411e-01 1.9196351638119549e-01 5.7992327750759846e-02  1.4619711572008684e-01 1.9069496586106799e-01 7.0143861505064520e-02  1.4641268757488168e-01 1.8945840696709296e-01 8.2779996244249324e-02  1.4550940811405602e-01 1.8827563647766640e-01 9.5823427709445907e-02  1.4348666137166413e-01 1.8716791339573069e-01 1.0920732408662151e-01  1.4032932391534836e-01 1.8615700612955677e-01 1.2287012910917429e-01  1.3600710391317625e-01 1.8526665124303077e-01 1.3675042145240479e-01  1.3047401021960062e-01 1.8452434930300124e-01 1.5078091358640289e-01  1.2366858791747441e-01 1.8396342147890909e-01 1.6488057295322855e-01  1.1551600994110972e-01 1.8362521677775551e-01 1.7894358204309799e-01  1.0593374909218488e-01 1.8356130731327969e-01 1.9282339583583291e-01  9.4843312257521517e-02 1.8383547591727306e-01 2.0630954687689995e-01  8.2191054044661566e-02 1.8452537684884160e-01 2.1909452272232718e-01  6.7980470852260486e-02 1.8572410443286008e-01 2.3072969680629934e-01  5.2315136368748218e-02 1.8754271616516724e-01 2.4057718356379923e-01  3.5445130861119910e-02 1.9011563403709408e-01 2.4778298913298266e-01  1.7802375131876241e-02 1.9360856215804739e-01 2.5130956994280285e-01  0.0000000000000000e+00 1.9821328190160281e-01 2.5000000000000000e-01  1.0000000000000001e-01 2.0000000000000001e-01 0.0000000000000000e+00  1.1132974564914522e-01 1.9981657205894812e-01 2.9446284875050289e-03  1.2116504038289717e-01 1.9927389593190850e-01 8.5868630615598771e-03  1.2949090124527721e-01 1.9835509300965451e-01 1.6170981855429745e-02  1.3634983754907176e-01 1.9711595165257911e-01 2.5189277305423786e-02  1.4180720835114868e-01 1.9562760530926676e-01 3.5295393859225657e-02  1.4593206272968179e-01 1.9395667239767084e-01 4.6247754540744812e-02  1.4878729108723590e-01 1.9215933901505711e-01 5.7873488666604612e-02  1.5042479114303384e-01 1.9028063943198950e-01 7.0045403066493497e-02  1.5088306515739786e-01 1.8835559741396002e-01 8.2667078806082525e-02  1.5018578087249565e-01 1.8641096797186432e-01 9.5662964721220198e-02  1.4834049475406333e-01 1.8446714907257450e-01 1.0897144150714000e-01  1.4533714002335957e-01 1.8254017986000773e-01 1.2253945587725151e-01  1.4114617086207321e-01 1.8064389972538888e-01 1.3631762581644319e-01  1.3571654826965004e-01 1.7879242727498112e-01 1.5025477011206564e-01  1.2897417406318684e-01 1.7700317281822994e-01 1.6429062000602779e-01  1.2082207405609598e-01 1.7530062816851016e-01 1.7834494990785965e-01  1.1114476407987714e-01 1.7372116004866417e-01 1.9230034684848130e-01  9.9820866955709006e-02 1.7231891040984565e-01 2.0597411919398098e-01  8.6749705981664135e-02 1.7117257157605961e-01 2.1907264614929450e-01  7.1897223529764021e-02 1.7039209094894242e-01 2.3112139146948546e-01  5.5359932613617768e-02 1.7012323804702767e-01 2.4137633667247552e-01  3.7433443910723362e-02 1.7054857136453141e-01 2.4877115550111872e-01  1.8678596072048630e-02 1.7189915022999824e-01 2.5203264969188605e-01  0.0000000000000000e+00 1.7454359361465999e-01 2.5000000000000000e-01  1.0000000000000001e-01 2.0000000000000001e-01 0.0000000000000000e+00  1.1273073494379279e-01 2.0237468265938593e-01 2.8046656469582322e-03  1.2411791249892566e-01 2.0274760539727496e-01 8.6955241176334391e-03  1.3380501921655913e-01 2.0195122049018840e-01 1.6625363352754063e-02  1.4176559942293485e-01 2.0043329636195667e-01 2.5969650141857984e-02  1.4808707379496258e-01 1.9845447536951935e-01 3.6338008667335463e-02  1.5288584102032923e-01 1.9617551145030562e-01 4.7475761225307965e-02  1.5627450302268495e-01 1.9369906290646330e-01 5.9210088049189397e-02  1.5834999475063355e-01 1.9109129908815276e-01 7.1419284995844198e-02  1.5918985481225970e-01 1.8839383080082911e-01 8.4014496613691966e-02  1.5885126234194580e-01 1.8563066219487062e-01 9.6928395651113719e-02  1.5737048889663249e-01 1.8281242541066883e-01 1.1010775384942281e-01  1.5476164501236339e-01 1.7993908680739004e-01 1.2350807673510082e-01  1.5101407352302151e-01 1.7700184720904347e-01 1.3708906406446456e-01  1.4608790106062122e-01 1.7398481272818050e-01 1.5080987568596549e-01  1.3990734943479824e-01 1.7086710418307674e-01 1.6462312805116922e-01  1.3235168674353867e-01 1.6762643102233643e-01 1.7846619892368276e-01  1.2324465476649971e-01 1.6424589610584611e-01 1.9224760459260865e-01  1.1234591819550364e-01 1.6072710193579987e-01 2.0582445462898824e-01  9.9354648663067799e-02 1.5711460800656271e-01 2.1896314095060268e-01  8.3948484070738197e-02 1.5353872600393326e-01 2.3126744772037622e-01  6.5898083932661139e-02 1.5028010991072502e-01 2.4204673985364852e-01  4.5291115130039854e-02 1.4782363141914318e-01 2.5010821687700552e-01  2.2827245392414479e-02 1.4672157868528862e-01 2.5358483435133505e-01  0.0000000000000000e+00 1.4694196546582627e-01 2.5000000000000000e-01  1.0000000000000001e-01 2.0000000000000001e-01 0.0000000000000000e+00  1.0429747241258921e-01 1.9682953276387477e-01 5.7577965976871705e-03  1.0879039051677840e-01 1.9456163866040377e-01 1.2539067563463015e-02  1.1314574472548329e-01 1.9308116587129637e-01 2.0296777668419207e-02  1.1714450316161852e-01 1.9230737152875479e-01 2.8947415801836449e-02  1.2063851152856736e-01 1.9218277410046547e-01 3.8397908650731033e-02  1.2352298421354055e-01 1.9266712361821106e-01 4.8557924707124313e-02  1.2571842127836053e-01 1.9373366700669462e-01 5.9344261436541992e-02  1.2715841776129597e-01 1.9536629008765666e-01 7.0681188039761519e-02  1.2778128372204706e-01 1.9755684914930621e-01 8.2498807692022766e-02  1.2752424924643854e-01 2.0030231370799406e-01 9.4730450995058793e-02  1.2631957824860746e-01 2.0360143261578223e-01 1.0730952913082166e-01  1.2409230894640312e-01 2.0745061621113312e-01 1.2016596451804287e-01  1.2075965911553330e-01 2.1183864492125959e-01 1.3322216409416970e-01  1.1623242312547881e-01 2.1673968671868893e-01 1.4638844921230629e-01  1.1041895477602381e-01 2.2210394168942357e-01 1.5955789537345766e-01  1.0323254028898195e-01 2.2784506074566399e-01 1.7260070295226265e-01  9.4603014020960816e-02 2.3382341101113130e-01 1.8535862867781369e-01  8.4493151652994924e-02 2.3982458259517772e-01 1.9764087725176824e-01  7.2919417209964157e-02 2.4553395910713890e-01 2.0922449272597343e-01  5.9974909695638082e-02 2.5051195383816333e-01 2.1986481254918386e-01  4.5850333906555962e-02 2.5418146314658779e-01 2.2932397400032969e-01  3.0847865381437772e-02 2.5584474332104995e-01 2.3742485550456324e-01  1.5385185114333070e-02 2.5473078106341396e-01 2.4413342206040678e-01  0.0000000000000000e+00 2.5000000000000000e-01 2.4967815066964749e-01  1.0000000000000001e-01 2.0000000000000001e-01 0.0000000000000000e+00  1.0482781384784508e-01 1.9816257545672267e-01 5.3175301026182889e-03  1.0910679971219910e-01 1.9659276901466571e-01 1.1777188570288732e-02  1.1282804966802117e-01 1.9541746335069557e-01 1.9302923536310933e-02  1.1595110990346838e-01 1.9468821364912778e-01 2.7784828008079059e-02  1.1842736687532110e-01 1.9442201822770327e-01 3.7110498261656404e-02  1.2020819218022216e-01 1.9462109344576417e-01 4.7176355022736545e-02  1.2124678834144795e-01 1.9528227214130264e-01 5.7890309521941873e-02  1.2149770835200240e-01 1.9640112831854639e-01 6.9170847649438677e-02  1.2091581706427729e-01 1.9797328754395999e-01 8.0944745081403133e-02  1.1945551835471895e-01 1.9999410390264330e-01 9.3144301107131677e-02  1.1707070230027526e-01 2.0245725068730439e-01 1.0570435145025348e-01  1.1371575742359842e-01 2.0535244627077712e-01 1.1855900914540798e-01  1.0934799183604288e-01 2.0866236423248355e-01 1.3163790984642598e-01  1.0393182012783826e-01 2.1235869407381189e-01 1.4486162479954709e-01  9.7445006799388958e-02 2.1639731698632980e-01 1.5813583350799906e-01  8.9886974401470879e-02 2.2071268085174955e-01 1.7134386673792812e-01  8.1288464424634568e-02 2.2521180317778117e-01 1.8433749292778742e-01  7.1720363856298514e-02 2.2976908194185594e-01 1.9692666166421635e-01  6.1296968504380482e-02 2.3422449037072132e-01 2.0887092412323430e-01  5.0165504149913304e-02 2.3838990421578823e-01 2.1987917711342900e-01  3.8471303081709429e-02 2.4207084822210667e-01 2.2963045450689915e-01  2.6292554404449373e-02 2.4511240049901464e-01 2.3783442301062602e-01  1.3558882610286233e-02 2.4747700672292200e-01 2.4434923053364088e-01  0.0000000000000000e+00 2.4936283493242001e-01 2.4936283493242001e-01  1.0000000000000001e-01 2.0000000000000001e-01 0.0000000000000000e+00  1.0443204671886849e-01 1.9854668750460608e-01 5.2183209401852242e-03  1.0833514474945909e-01 1.9732146012741858e-01 1.1589700478823803e-02  1.1163721233203339e-01 1.9635941338162410e-01 1.9038035347137022e-02  1.1428172856757436e-01 1.9569227090491653e-01 2.7451178743994237e-02  1.1622465826042920e-01 1.9534310360734733e-01 3.6714450041107877e-02  1.1743038554688773e-01 1.9532723978058555e-01 4.6722350108029831e-02  1.1786838812634851e-01 1.9565444278022626e-01 5.7381126115775088e-02  1.1751094987274696e-01 1.9633074296808162e-01 6.8607701267178398e-02  1.1633183546300936