<?xml version="1.0"?>
<VTKFile type="UnstructuredGrid"  version="0.1"  >
<UnstructuredGrid>
<Piece  NumberOfPoints="13513" NumberOfCells="26190">
<Points>
<DataArray  type="Float64"  NumberOfComponents="3"  format="ascii">0 0 0  1 3 0  1 4 0  0 1 0  0.003154574132479035 0.009463722397437107 0  0.006309148264958071 0.01892744479487421 0  0.009463722397437055 0.02839116719231116 0  0.01261829652991599 0.03785488958974798 0  0.01577287066239492 0.04731861198718475 0  0.01892744479487369 0.05678233438462107 0  0.02208201892735246 0.06624605678205739 0  0.02523659305983122 0.07570977917949365 0  0.02839116719230996 0.08517350157692988 0  0.0315457413247887 0.09463722397436609 0  0.03470031545726739 0.1041009463718022 0  0.03785488958974608 0.1135646687692382 0  0.04100946372222476 0.1230283911666743 0  0.04416403785470342 0.1324921135641103 0  0.04731861198718208 0.1419558359615463 0  0.05047318611966074 0.1514195583589822 0  0.0536277602521394 0.1608832807564182 0  0.05678233438461854 0.1703470031538556 0  0.05993690851709791 0.1798107255512937 0  0.06309148264957755 0.1892744479487327 0  0.06624605678205835 0.198738170346175 0  0.06940063091453914 0.2082018927436174 0  0.07255520504702044 0.2176656151410613 0  0.07570977917950195 0.2271293375385058 0  0.07886435331198345 0.2365930599359504 0  0.08201892744446496 0.2460567823333949 0  0.08517350157694648 0.2555205047308394 0  0.08832807570942798 0.264984227128284 0  0.09148264984190949 0.2744479495257285 0  0.09463722397439099 0.283911671923173 0  0.0977917981068725 0.2933753943206175 0  0.100946372239354 0.302839116718062 0  0.1041009463718355 0.3123028391155065 0  0.107255520504317 0.321766561512951 0  0.1104100946367985 0.3312302839103956 0  0.11356466876928 0.3406940063078401 0  0.1167192429017615 0.3501577287052846 0  0.1198738170342418 0.3596214511027255 0  0.1230283911667219 0.3690851735001658 0  0.1261829652992009 0.3785488958976028 0  0.1293375394316782 0.3880126182950345 0  0.1324921135641554 0.3974763406924662 0  0.1356466876966314 0.4069400630898942 0  0.1388012618291072 0.4164037854873216 0  0.141955835961583 0.425867507884749 0  0.1451104100940588 0.4353312302821765 0  0.1482649842265347 0.444794952679604 0  0.1514195583590105 0.4542586750770314 0  0.1545741324914863 0.4637223974744588 0  0.1577287066239621 0.4731861198718863 0  0.1608832807564379 0.4826498422693138 0  0.1640378548889138 0.4921135646667413 0  0.1671924290213921 0.5015772870641764 0  0.1703470031538706 0.5110410094616118 0  0.1735015772863504 0.5205047318590512 0  0.1766561514188315 0.5299684542564944 0  0.1798107255513125 0.5394321766539376 0  0.1829652996837936 0.5488958990513808 0  0.1861198738162747 0.5583596214488241 0  0.1892744479487558 0.5678233438462672 0  0.1924290220812368 0.5772870662437105 0  0.1955835962137179 0.5867507886411537 0  0.198738170346199 0.5962145110385969 0  0.2018927444786801 0.6056782334360402 0  0.2050473186111611 0.6151419558334833 0  0.2082018927436422 0.6246056782309265 0  0.2113564668761233 0.6340694006283698 0  0.2145110410086043 0.643533123025813 0  0.2176656151410854 0.6529968454232562 0  0.2208201892735665 0.6624605678206995 0  0.2239747634060476 0.6719242902181426 0  0.2271293375385286 0.6813880126155859 0  0.2302839116710097 0.690851735013029 0  0.2334384858034907 0.7003154574104722 0  0.2365930599359719 0.7097791798079156 0  0.2397476340684529 0.7192429022053587 0  0.242902208200934 0.7287066246028019 0  0.2460567823334151 0.7381703470002452 0  0.2492113564658961 0.7476340693976884 0  0.2523659305983772 0.7570977917951316 0  0.2555205047308582 0.7665615141925748 0  0.2586750788633393 0.7760252365900179 0  0.2618296529958204 0.7854889589874612 0  0.2649842271283015 0.7949526813849045 0  0.2681388012607825 0.8044164037823476 0  0.2712933753932636 0.813880126179791 0  0.2744479495257447 0.8233438485772341 0  0.2776025236582257 0.8328075709746772 0  0.2807570977907068 0.8422712933721206 0  0.2839116719231879 0.8517350157695637 0  0.287066246055669 0.861198738167007 0  0.29022082018815 0.8706624605644502 0  0.2933753943206311 0.8801261829618933 0  0.2965299684531122 0.8895899053593366 0  0.2996845425855933 0.8990536277567799 0  0.3028391167180743 0.908517350154223 0  0.3059936908505554 0.9179810725516662 0  0.3091482649830364 0.9274447949491094 0  0.3123028391155175 0.9369085173465526 0  0.3154574132479986 0.946372239743996 0  0.3186119873804797 0.9558359621414391 0  0.3217665615129608 0.9652996845388824 0  0.3249211356454418 0.9747634069363256 0  0.3280757097779229 0.9842271293337687 0  0.331230283910404 0.993690851731212 0  0.334384858042885 1.003154574128655 0  0.3375394321753661 1.012618296526098 0  0.3406940063078472 1.022082018923542 0  0.3438485804403282 1.031545741320985 0  0.3470031545728093 1.041009463718428 0  0.3501577287052904 1.050473186115871 0  0.3533123028377715 1.059936908513314 0  0.3564668769702525 1.069400630910758 0  0.3596214511027336 1.078864353308201 0  0.3627760252352147 1.088328075705644 0  0.3659305993676958 1.097791798103087 0  0.3690851735001768 1.107255520500531 0  0.3722397476326579 1.116719242897974 0  0.375394321765139 1.126182965295417 0  0.37854889589762 1.13564668769286 0  0.3817034700301011 1.145110410090303 0  0.3848580441625822 1.154574132487747 0  0.3880126182950633 1.16403785488519 0  0.3911671924275443 1.173501577282633 0  0.3943217665600254 1.182965299680076 0  0.3974763406925065 1.19242902207752 0  0.4006309148249875 1.201892744474963 0  0.4037854889574686 1.211356466872406 0  0.4069400630899497 1.220820189269849 0  0.4100946372224307 1.230283911667292 0  0.4132492113549118 1.239747634064735 0  0.4164037854873928 1.249211356462178 0  0.4195583596198739 1.258675078859622 0  0.4227129337523549 1.268138801257065 0  0.4258675078848359 1.277602523654508 0  0.429022082017317 1.287066246051951 0  0.4321766561497981 1.296529968449394 0  0.4353312302822791 1.305993690846837 0  0.4384858044147602 1.315457413244281 0  0.4416403785472413 1.324921135641724 0  0.4447949526797222 1.334384858039167 0  0.4479495268122033 1.34384858043661 0  0.4511041009446843 1.353312302834053 0  0.4542586750771654 1.362776025231496 0  0.4574132492096465 1.37223974762894 0  0.4605678233421275 1.381703470026383 0  0.4637223974746086 1.391167192423826 0  0.4668769716070896 1.400630914821269 0  0.4700315457395707 1.410094637218712 0  0.4731861198720518 1.419558359616155 0  0.4763406940045328 1.429022082013598 0  0.4794952681370139 1.438485804411042 0  0.482649842269495 1.447949526808485 0  0.485804416401976 1.457413249205928 0  0.488958990534457 1.466876971603371 0  0.4921135646669381 1.476340694000814 0  0.4952681387994247 1.485804416398274 0  0.4984227129319115 1.495268138795735 0  0.5015772870644039 1.504731861193211 0  0.5047318611969021 1.514195583590706 0  0.5078864353294004 1.523659305988201 0  0.5110410094619041 1.533123028385712 0  0.514195583594408 1.542586750783224 0  0.5173501577269118 1.552050473180735 0  0.5205047318594157 1.561514195578247 0  0.5236593059919196 1.570977917975759 0  0.5268138801244233 1.58044164037327 0  0.5299684542569272 1.589905362770782 0  0.5331230283894312 1.599369085168294 0  0.5362776025219349 1.608832807565805 0  0.5394321766544388 1.618296529963316 0  0.5425867507869426 1.627760252360828 0  0.5457413249194465 1.637223974758339 0  0.5488958990519504 1.646687697155851 0  0.5520504731844541 1.656151419553362 0  0.555205047316958 1.665615141950874 0  0.5583596214494618 1.675078864348385 0  0.5615141955819657 1.684542586745897 0  0.5646687697144696 1.694006309143409 0  0.5678233438469733 1.70347003154092 0  0.5709779179794772 1.712933753938432 0  0.574132492111981 1.722397476335943 0  0.5772870662444849 1.731861198733455 0  0.5804416403769888 1.741324921130966 0  0.5835962145094926 1.750788643528478 0  0.5867507886419964 1.760252365925989 0  0.5899053627745002 1.769716088323501 0  0.5930599369070042 1.779179810721013 0  0.596214511039508 1.788643533118524 0  0.5993690851720118 1.798107255516035 0  0.6025236593045156 1.807570977913547 0  0.6056782334370195 1.817034700311059 0  0.6088328075695234 1.82649842270857 0  0.6119873817020272 1.835962145106081 0  0.615141955834531 1.845425867503593 0  0.6182965299670348 1.854889589901104 0  0.6214511040995387 1.864353312298616 0  0.6246056782320426 1.873817034696128 0  0.6277602523645464 1.883280757093639 0  0.6309148264970502 1.892744479491151 0  0.6340694006295541 1.902208201888662 0  0.6372239747620579 1.911671924286174 0  0.6403785488945618 1.921135646683685 0  0.6435331230270657 1.930599369081197 0  0.6466876971595694 1.940063091478708 0  0.6498422712920733 1.94952681387622 0  0.6529968454245771 1.958990536273731 0  0.656151419557081 1.968454258671243 0  0.6593059936895849 1.977917981068755 0  0.6624605678220886 1.987381703466266 0  0.6656151419545926 1.996845425863778 0  0.6687697160870963 2.006309148261289 0  0.6719242902196002 2.015772870658801 0  0.6750788643521041 2.025236593056312 0  0.6782334384846078 2.034700315453823 0  0.6813880126171118 2.044164037851335 0  0.6845425867496157 2.053627760248847 0  0.6876971608821194 2.063091482646358 0  0.6908517350146233 2.07255520504387 0  0.6940063091471271 2.082018927441381 0  0.697160883279631 2.091482649838893 0  0.7003154574121349 2.100946372236405 0  0.7034700315446386 2.110410094633916 0  0.7066246056771425 2.119873817031428 0  0.7097791798096463 2.129337539428939 0  0.7129337539421502 2.138801261826451 0  0.7160883280746541 2.148264984223962 0  0.7192429022071578 2.157728706621473 0  0.7223974763396617 2.167192429018985 0  0.7255520504721656 2.176656151416497 0  0.7287066246046694 2.186119873814008 0  0.7318611987371733 2.19558359621152 0  0.7350157728696771 2.205047318609031 0  0.7381703470021809 2.214511041006543 0  0.7413249211346848 2.223974763404055 0  0.7444794952671887 2.233438485801566 0  0.7476340693996925 2.242902208199077 0  0.7507886435321963 2.252365930596589 0  0.7539432176647002 2.261829652994101 0  0.757097791797204 2.271293375391612 0  0.7602523659297079 2.280757097789124 0  0.7634069400622
[...]
<PointData  Scalars="u"> 
<DataArray  type="Float64"  Name="u"  format="ascii">0.0000000000000000e+00  0.0000000000000000e+00  0.0000000000000000e+00  0.0000000000000000e+00  9.0682964497314777e-03  1.8216138043461411e-02  2.7433511119276523e-02  3.6717491801604989e-02  4.6068943121559659e-02  5.5481699938987099e-02  6.4939940450012015e-02  7.4469689546923540e-02  8.4035500743525476e-02  9.3641422143493427e-02  1.0326884352252924e-01  1.1289207275631083e-01  1.2251363413957146e-01  1.3211061527293019e-01  1.4164211500623436e-01  1.5110503182586996e-01  1.6045005015282673e-01  1.6965411869644992e-01  1.7865786590159086e-01  1.8745038550088972e-01  1.9595747153843779e-01  2.0414366163162900e-01  2.1196732778564065e-01  2.1931065307826442e-01  2.2617991620425737e-01  2.3244832059389947e-01  2.3801221122734989e-01  2.4291233634487133e-01  2.4690029899640537e-01  2.5001574346685018e-01  2.5198210058955717e-01  2.5287581997435327e-01  2.5253650405697603e-01  2.5077042105467262e-01  2.4747994413505098e-01  2.4259078499778025e-01  2.3587727405280712e-01  2.2717017499071171e-01  2.1638833271706231e-01  2.0319631592968604e-01  1.8769299112103216e-01  1.6942653530253507e-01  1.4840318591255836e-01  1.2424285097931914e-01  9.6918497114045057e-02  6.5768213333428582e-02  3.1108448538511014e-02  -7.4909171274101091e-03  -5.0429131723594769e-02  -9.7613538909063782e-02  -1.4970623541498895e-01  -2.0686524888189867e-01  -2.6925559960809958e-01  -3.3730002082020627e-01  -4.1145850253189548e-01  -4.9202167289117837e-01  -5.7911670469445287e-01  -6.7292808993826958e-01  -7.7413619336875983e-01  -8.8372560492757679e-01  -1.0003174440498608e+00  -1.1256365929124850e+00  -1.2600852816698400e+00  -1.4036828771775489e+00  -1.5563861757825810e+00  -1.7195468159506144e+00  -1.8941538580972179e+00  -2.0782904848908328e+00  -2.2741996241761573e+00  -2.4821396598870344e+00  -2.7022026059215416e+00  -2.9344255360041047e+00  -3.1803783750460437e+00  -3.4397572475775244e+00  -3.7133954313329935e+00  -4.0006273018277190e+00  -4.3029934873445015e+00  -4.6208740882845669e+00  -4.9542147729093999e+00  -5.3032201624875608e+00  -5.6682427041398666e+00  -6.0511149564984521e+00  -6.4489613227508906e+00  -6.8652516297190509e+00  -7.2984688006508902e+00  -7.7488684767267548e+00  -8.2175200112904623e+00  -8.7030232921666126e+00  -9.2074132547384497e+00  -9.7276296959080693e+00  -1.0266523887604983e+01  -1.0823269677244079e+01  -1.1396817920049346e+01  -1.1987127051178526e+01  -1.2594628645145328e+01  -1.3219539782146605e+01  -1.3860023520999739e+01  -1.4516201719410848e+01  -1.5187185514809974e+01  -1.5873701734741458e+01  -1.6574571269354045e+01  -1.7290304824934950e+01  -1.8019191438322920e+01  -1.8760756488588228e+01  -1.9515083020648799e+01  -2.0281770641529928e+01  -2.1060495955331305e+01  -2.1849865157923475e+01  -2.2650533952867196e+01  -2.3461264289481374e+01  -2.4282665420096741e+01  -2.5113203686706726e+01  -2.5953434646780529e+01  -2.6802801380716001e+01  -2.7660777564068766e+01  -2.8527810462028377e+01  -2.9403052442199186e+01  -3.0286713166917110e+01  -3.1178259367672084e+01  -3.2078175979774727e+01  -3.2985774157774678e+01  -3.3901534585557719e+01  -3.4825790797572388e+01  -3.5758038311257756e+01  -3.6697936476363957e+01  -3.7646832239951635e+01  -3.8604382220935420e+01  -3.9571371874090360e+01  -4.0547082995279467e+01  -4.1532418145932837e+01  -4.2528067189549382e+01  -4.3534296320692597e+01  -4.4552032395632395e+01  -4.5582101020333148e+01  -4.6624095909639152e+01  -4.7680260386065129e+01  -4.8750402245433705e+01  -4.9836770911524553e+01  -5.0940691697515774e+01  -5.2062462839207178e+01  -5.3203884478666453e+01  -5.4368311546134031e+01  -5.5556906433744025e+01  -5.6773830408522528e+01  -5.8018485667651589e+01  -5.9296106163273429e+01  -6.0610954335868463e+01  -6.1966967559610801e+01  -6.3372617417873805e+01  -6.4828971835918750e+01  -6.6345558223185364e+01  -6.7931753957826587e+01  -6.9604428717642080e+01  -7.1369596040848293e+01  -7.3249411813777087e+01  -7.5267611636422913e+01  -7.7451522041009397e+01  -7.9841109310775224e+01  -8.2523140525104381e+01  -8.5543090627750203e+01  -8.9072492551914863e+01  -9.3400971375962783e+01  -9.8819689045857373e+01  -1.0658387280978445e+02  -1.2178921605004710e+02  -1.4052565508757920e+02  -1.2480272774390437e+02  -1.1111611672803501e+02  -1.0334930220005857e+02  -9.8386772406521843e+01  -9.4597478442780599e+01  -9.1505142389125922e+01  -8.8956506965707860e+01  -8.6754842392602598e+01  -8.4813610878552410e+01  -8.3090625326864867e+01  -8.1519236009566725e+01  -8.0092071983955151e+01  -7.8778409150154957e+01  -7.7547166458537006e+01  -7.6396380543493805e+01  -7.5316217702023508e+01  -7.4288365113506671e+01  -7.3312064679700342e+01  -7.2380744274612994e+01  -7.1483648715600623e+01  -7.0620504155257521e+01  -6.9787786460265579e+01  -6.8980890549332017e+01  -6.8195369738660347e+01  -6.7432601512060245e+01  -6.6686237793490548e+01  -6.5957805730370112e+01  -6.5244285633633396e+01  -6.4543365039500728e+01  -6.3855481074668830e+01  -6.3178037377053528e+01  -6.2510863493398901e+01  -6.1852241511962845e+01  -6.1202575572417835e+01  -6.0560633345399651e+01  -5.9925665399989398e+01  -5.9296822564868776e+01  -5.8674249410263471e+01  -5.8057297685487647e+01  -5.7445111684133288e+01  -5.6838023064665613e+01  -5.6235292031668962e+01  -5.5636546055697224e+01  -5.5041926699836601e+01  -5.4451008868028318e+01  -5.3863610263903929e+01  -5.3279518106763170e+01  -5.2698496121169882e+01  -5.2120510633115764e+01  -5.1545398849495200e+01  -5.0973067313838392e+01  -5.0403386967926878e+01  -4.9836242033987048e+01  -4.9271503740769077e+01  -4.8709318696254734e+01  -4.8149343454722704e+01  -4.7591716813779605e+01  -4.7036266453935205e+01  -4.6482904593462791e+01  -4.5931774679199464e+01  -4.5382733789294761e+01  -4.4835727401147402e+01  -4.4290850192471595e+01  -4.3747866686564201e+01  -4.3206922530220119e+01  -4.2667933110799858e+01  -4.2130956079022120e+01  -4.1595815772928219e+01  -4.1062628999217637e+01  -4.0531441951479707e+01  -4.0002077555193210e+01  -3.9474691927754279e+01  -3.8949108828899114e+01  -3.8425463760899838e+01  -3.7903679183178539e+01  -3.7383841484044140e+01  -3.6865778120480911e+01  -3.6349658889603461e+01  -3.5835423503578049e+01  -3.5323032086839866e+01  -3.4812541484897423e+01  -3.4303941932357532e+01  -3.3797199835330886e+01  -3.3292301328932282e+01  -3.2789351311753222e+01  -3.2288289153070124e+01  -3.1789048852487241e+01  -3.1291705466113388e+01  -3.0796282890679951e+01  -3.0302633650209174e+01  -2.9810986866100734e+01  -2.9321181818973621e+01  -2.8833283348148832e+01  -2.8347176729729448e+01  -2.7863045425592251e+01  -2.7380821808565415e+01  -2.6900397015892661e+01  -2.6421900574436076e+01  -2.5945208634331774e+01  -2.5470438570606394e+01  -2.4997552740229629e+01  -2.4526497646363556e+01  -2.4057209296687880e+01  -2.3589845129261288e+01  -2.3124351726483397e+01  -2.2660546634484781e+01  -2.2198668474158882e+01  -2.1738575535710304e+01  -2.1280200562846360e+01  -2.0823567173537892e+01  -2.0368703361484005e+01  -1.9915552835984162e+01  -1.9464069321840189e+01  -1.9014297523279243e+01  -1.8565987884935339e+01  -1.8119311866246349e+01  -1.7674147662133226e+01  -1.7230442654253604e+01  -1.6788143255511095e+01  -1.6347174942328614e+01  -1.5907496010413265e+01  -1.5468987206130462e+01  -1.5031545935437176e+01  -1.4595126435858305e+01  -1.4159498513233833e+01  -1.3724630134627349e+01  -1.3290329278619595e+01  -1.2856371412587297e+01  -1.2422592750538458e+01  -1.1988833704690830e+01  -1.1554706485821145e+01  -1.1119866545715450e+01  -1.0684178903822691e+01  -1.0247003857779811e+01  -9.8080076450438174e+00  -9.3664021908736643e+00  -8.9218834519334074e+00  -8.4728665580289402e+00  -8.0195913142959299e+00  -7.5596694697766651e+00  -7.0920742025634240e+00  -6.6144041159302205e+00  -6.1250035500377402e+00  -5.6193871408522584e+00  -5.0935755085390886e+00  -4.5412001224416727e+00  -3.9467563227784672e+00  -3.2972254270000270e+00  -2.5489618622605916e+00  -1.5706370504263676e+00  0.0000000000000000e+00  0.0000000000000000e+00  0.0000000000000000e+00  0.0000000000000000e+00  0.0000000000000000e+00  0.0000000000000000e+00  0.0000000000000000e+00  0.0000000000000000e+00  0.0000000000000000e+00  0.0000000000000000e+00  0.0000000000000000e+00  0.0000000000000000e+00  0.0000000000000000e+00  0.0000000000000000e+00  0.0000000000000000e+00  0.0000000000000000e+00  0.0000000000000000e+00  0.0000000000000000e+00  0.0000000000000000e+00  0.0000000000000000e+00  0.0000000000000000e+00  0.0000000000000000e+00  0.0000000000000000e+00  0.0000000000000000e+00  0.0000000000000000e+00  0.0000000000000000e+00  0.0000000000000000e+00  0.0000000000000000e+00  0.0000000000000000e+00  0.0000000000000000e+00  0.0000000000000000e+00  0.0000000000000000e+00  0.0000000000000000e+00  0.0000000000000000e+00  0.0000000000000000e+00  0.0000000000000000e+00  0.0000000000000000e+00  0.0000000000000000e+00  0.0000000000000000e+00  0.0000000000000000e+00  0.0000000000000000e+00  0.0000000000000000e+00  0.0000000000000000e+00  0.0000000000000000e+00  0.0000000000000000e+00  0.0000000000000000e+00  0.0000000000000000e+00  0.0000000000000000e+00  0.0000000000000000e+00  0.0000000000000000e+00  0.0000000000000000e+00  0.0000000000000000e+00  0.0000000000000000e+00  0.0000000000000000e+00  0.0000000000000000e+00  0.0000000000000000e+00  0.0000000000000000e+00  0.0000000000000000e+00  0.0000000000000000e+00  0.0000000000000000e+00  0.0000000000000000e+00  0.0000000000000000e+00  0.0000000000000000e+00  0.0000000000000000e+00  0.0000000000000000e+00  0.0000000000000000e+00  0.0000000000000000e+00  0.0000000000000000e+00  0.0000000000000000e+00  0.0000000000000000e+00  0.0000000000000000e+00  0.0000000000000000e+00  0.0000000000000000e+00  0.0000000000000000e+00  0.0000000000000000e+00  0.0000000000000000e+00  0.0000000000000000e+00  0.0000000000000000e+00  0.0000000000000000e+00  0.0000000000000000e+00  0.0000000000000000e+00  0.0000000000000000e+00  0.0000000000000000e+00  0.0000000000000000e+00  0.0000000000000000e+00  0.0000000000000000e+00  0.0000000000000000e+00  0.0000000000000000e+00  0.0000000000000000e+00  0.0000000000000000e+00  0.0000000000000000e+00  0.0000000000000000e+00  0.0000000000000000e+00  0.0000000000000000e+00  0.0000000000000000e+00  0.0000000000000000e+00  0.0000000000000000e+00  0.0000000000000000e+00  0.0000000000000000e+00  9.5529291176784849e-03  1.9101685893120609e-02  2.8686251355082203e-02  3.8222920479529091e-02  4.7820129728836529e-02  5.7442546719213193e-02  6.7056727725895396e-02  7.6760566494765148e-02  8.6364459919285388e-02  9.6047747896888441e-02  1.0578635534640127e-01  1.1550947930941323e-01  1.2527566343307195e-01  1.3499344774241018e-01  1.4471463694761344e-01  1.5451514931329657e-01  1.6416246168803497e-01  1.7382661420447099e-01  1.8343481751967775e-01  1.9303949580237137e-01  2.0247668312417710e-01  2.1181303935814388e-01  2.2095103658969464e-01  2.2998961167371426e-01  2.3884283824639491e-01  2.4745450502853203e-01  2.5580882929884402e-01  2.6385127579560658e-01  2.7156700534422901e-01  2.7890242722697445e-01  2.8580126692349450e-01  2.9221792345839087e-01  2.9811604995986019e-01  3.0341665036125526e-01  3.0807736073809933e-01  3.1203480587354349e-01  3.1520320446951511e-01  3.1754657063392061e-01  3.1893571707078455e-01  3.1935943488450941e-01  3.1870269041053828e-01  3.1685290707462010e-01  3.1377726249164589e-01  3.0936167010713389e-01  3.0347096429334985e-01  2.9603634460431139e-01  2.8698028894342592e-01  2.7613368922475007e-01  2.6343241210086094e-01  2.4870351014709477e-01  2.3180884355230877e-01  2.1272741532853609e-01  1.9127266309154228e-01  1.6719782453991702e-01  1.4050395962739470e-01  1.1103623139118358e-01  7.8627714326528542e-02  4.3016777969827932e-02  4.1723879487657609e-03  -3.8118754663864857e-02  -8.4259871105783965e-02  -1.3395829484813201e-01  -1.8766789621569469e-01  -2.4568412947262500e-01  -3.0806887552508683e-01  -3.7489555368839311e-01  -4.4629026060310972e-01  -5.2283900987861942e-01  -6.0428520228181082e-01  -6.9128192729150850e-01  -7.8390120318280798e-01  -8.8236791750905363e-01  -9.8638250684549855e-01  -1.0968497014576530e+00  -1.2134490452707920e+00  -1.3365150485915811e+00  -1.4666107019023695e+00  -1.6036200070102693e+00  -1.7472950613840184e+00  -1.8984911262894946e+00  -2.0571057727268554e+00  -2.2231903169592786e+00  -2.3970493935360415e+00  -2.5785037596877998e+00  -2.7679516511431435e+00  -2.9658005021883906e+00  -3.1713762244067087e+00  -3.3847122401908805e+00  -3.6069083309912764e+00  -3.8366479495098118e+00  -4.0748253464037090e+00  -4.3207130756933037e+00  -4.5750861858605889e+00  -4.8370111202281638e+00  -5.1069897301727085e+00  -5.3849189987232835e+00  -5.6695920474548984e+00  -5.9622338087637425e+00  -6.2621985076728999e+00  -6.5687970302738847e+00  -6.8826937966408375e+00  -7.2029854754268481e+00  -7.5296385521873148e+00  -7.8624856592019254e+00  -8.2017008452517892e+00  -8.5463012000799718e+00  -8.8965268764618326e+00  -9.2521291798471612e+00  -9.6127026651345062e+00  -9.9785414722107504e+00  -1.0349116960271676e+01  -1.0723974195812106e+01  -1.1103392988946773e+01  -1.1486967163835903e+01  -1.1874565332600895e+01  -1.2266149705928601e+01  -1.2661330697403340e+01  -1.3060154751845262e+01  -1.3462650297395022e+01  -1.3868384551113616e+01  -1.4277376518376679e+01  -1.4689376891094124e+01  -1.5104560574084038e+01  -1.5522721711478995e+01  -1.5943645032357283e+01  -1.6367485674004822e+01  -1.6794093352967138e+01  -1.7223253500045676e+01  -1.7655002160062764e+01  -1.8089409532688212e+01  -1.8526320142736612e+01  -1.8965536276321291e+01  -1.9407362081656956e+01  -1.9851409738188700e+01  -2.0297820145988524e+01  -2.0746583447188343e+01  -2.1197571559788102e+01  -2.1650708348837224e+01  -2.2106105549721178e+01  -2.2563766613672076e+01  -2.3023490301982385e+01  -2.3485370854486835e+01  -2.3949378929562435e+01  -2.4415446575463271e+01  -2.4883609185528403e+01  -2.5353831198608997e+01  -2.5826097545433171e+01  -2.6300393771693901e+01  -2.6776674105109603e+01  -2.7254937137797675e+01  -2.7735197163772320e+01  -2.8217438160161077e+01  -2.8701612148905024e+01  -2.9187708756927449e+01  -2.9675804047195964e+01  -3.0165720903545282e+01  -3.0657558017044529e+01  -3.1151319006792825e+01  -3.1646988274565516e+01  -3.2144378137043752e+01  -3.2643647887813124e+01  -3.3144835214550753e+01  -3.3647791412263011e+01  -3.4152540817503109e+01  -3.4659087286775119e+01  -3.5167353986468072e+01  -3.5677476981721775e+01  -3.6189284083810122e+01  -3.6702826709146954e+01  -3.7218001454410015e+01  -3.7734967302317088e+01  -3.8253530450466400e+01  -3.8773744691361230e+01  -3.9295566517439042e+01  -3.9819052215408753e+01  -4.0344039699872752e+01  -4.0870594392144561e+01  -4.1398637190724500e+01  -4.1928159316818721e+01  -4.2459138506460349e+01  -4.2991531284332282e+01  -4.3525277082708229e+01  -4.4060378157066566e+01  -4.4596726487971914e+01  -4.5134322445721082e+01  -4.5673089570997767e+01  -4.6213017521961348e+01  -4.6753959672933256e+01  -4.7295915032906606e+01  -4.7838777996990636e+01  -4.8382492175085041e+01  -4.8926950546021430e+01  -4.9472071389056211e+01  -5.0017744858056972e+01  -5.0563877413028273e+01  -5.1110256747072874e+01  -5.1656915042298927e+01  -5.2203668659463162e+01  -5.2750243810786280e+01  -5.3296488493998588e+01  -5.3842336687108869e+01  -5.4387510592317980e+01  -5.4931794031508922e+01  -5.5475013838423230e+01  -5.6016748530976223e+01  -5.6556776544302160e+01  -5.7094791917373804e+01  -5.7630514406465259e+01  -5.8163554005563036e+01  -5.8693418023058967e+01  -5.9219859824594323e+01  -5.9742028290868660e+01  -6.0259682537611020e+01  -6.0772623338288525e+01  -6.1279611474828556e+01  -6.1779736217739874e+01  -6.2273125673239910e+01  -6.2758786100870417e+01  -6.3235573294922389e+01  -6.3702837467077963e+01  -6.4158214027071978e+01  -6.4604504001941876e+01  -6.5036417320976383e+01  -6.5455092097095672e+01  -6.5858214614972852e+01  -6.6245033255796997e+01  -6.6613321642045676e+01  -6.6964031869195452e+01  -6.7293120234541661e+01  -6.7599692790062747e+01  -6.7882733536229068e+01  -6.8141091899902506e+01  -6.8370522443250238e+01  -6.8573169722083648e+01  -6.8743331035875755e+01  -6.8881687136965411e+01  -6.8987552116791818e+01  -6.9056237008332587e+01  -6.9089870863653928e+01  -6.9082979970279382e+01  -6.9035494598813955e+01  -6.8950527037851316e+01  -6.8820717674068504e+01  -6.8646914006339060e+01  -6.8430478048053487e+01  -6.8165659909150150e+01  -6.7858071566986936e+01  -6.7501065274486592e+01  -6.7092273107088587e+01  -6.6634875214156111e+01  -6.6125493460416038e+01  -6.5549716522122097e+01  -6.4907382603775687e+01  -6.4172731150882527e+01  -6.3254078959291654e+01  -6.1626011544976137e+01  -5.8712988557664758e+01  -5.7964806873954281e+01  -5.7751780102646201e+01  -5.7322492741646229e+01  -5.6810967513971846e+01  -5.6221545045017443e+01  -5.5591073680706117e+01  -5.4926867022641026e+01  -5.4227335399371682e+01  -5.3502113347598616e+01  -5.2756360282288462e+01  -5.1987366954160251e+01  -5.1203255691894960e+01  -5.0402793440793786e+01  -4.9587460164734608e+01  -4.8760828578507052e+01  -4.7922000978575333e+01  -4.7074293517379360e+01  -4.6218112546772439e+01  -4.5353678209745929e+01  -4.4482715930838751e+01  -4.3605421651707545e+01  -4.2722778471771598e+01  -4.1835882778727537e+01  -4.0944242006645752e+01  -4.0048680426157887e+01  -3.9149980534929945e+01  -3.8247962811129291e+01  -3.7343273149814259e+01  -3.6435898185696708e+01  -3.5526060395759245e+01  -3.4613737212593293e+01  -3.3699182223553592e+01  -3.2782196335626956e+01  -3.1862956321628417e+01  -3.0940849359264543e+01  -3.0016173225080628e+01  -2.9088300877720588e+01  -2.8157180868259555e+01  -2.7222301426637920e+01  -2.6282860479149932e+01  -2.5338400329592712e+01  -2.4388163515030488e+01  -2.3431105432700363e+01  -2.2466431095032767e+01  -2.1492594265429087e+01  -2.0507964036891664e+01  -1.9509950407726258e+01  -1.8497650451389372e+01  -1.7467542377414123e+01  -1.6415620442917835e+01  -1.5335840280605845e+01  -1.4226089622511331e+01  -1.3074498576035149e+01  -1.1866700340918122e+01  -1.0600502955824190e+01  -9.2255799305742805e+00  -7.7150237856210335e+00  -5.9760537831660265e+00  -3.6501025429030216e+00  0.0000000000000000e+00  0.0000000000000000e+00  0.0000000000000000e+00  0.0000000000000000e+00  0.0000000000000000e+00  0.0000000000000000e+00  0.0000000000000000e+00  0.0000000000000000e+00  0.0000000000000000e+00  0.0000000000000000e+00  0.0000000000000000e+00  0.0000000000000000e+00  0.0000000000000000e+00  0.0000000000000000e+00  0.0000000000000000e+00  0.0000000000000000e+00  0.0000000000000000e+00  0.0000000000000000e+00  0.0000000000000000e+00  0.0000000000000000e+00  0.0000000000000000e+00  0.0000000000000000e+00  0.0000000000000000e+00  0.0000000000000000e+00  0.0000000000000000e+00  0.0000000000000000e+00  0.0000000000000000e+00  0.0000000000000000e+00  0.0000000000000000e+00  0.0000000000000000e+00  0.0000000000000000e+00  0.0000000000000000e+00  0.0000000000000000e+00  0.0000000000000000e+00  0.0000000000000000e+00  0.0000000000000000e+00  0.0000000000000000e+00  0.0000000000000000e+00  0.0000000000000000e+00  0.0000000000000000e+00  0.0000000000000000e+00  0.0000000000000000e+00  0.0000000000000000e+00  0.0000000000000000e+00  0.0000000000000000e+00  0.0000000000000000e+00  0.0000000000000000e+00  0.0000000000000000e+00  0.0000000000000000e+00  0.0000000000000000e+00  0.0000000000000000e+00  0.0000000000000000e+00  0.0000000000000000e+00  0.0000000000000000e+00  0.0000000000000000e+00  0.0000000000000000e+00  0.0000000000000000e+00  0.0000000000000000e+00  0.0000000000000000e+00  0.0000000000000000e+00  0.0000000000000000e+00  0.0000000000000000e+00  0.0000000000000000e+00  0.0000000000000000e+00  0.0000000000000000e+00  0.0000000000000000e+00  0.0000000000000000e+00  0.0000000000000000e+00  0.0000000000000000e+00  0.0000000000000000e+00  0.0000000000000000e+00  0.0000000000000000e+00  0.0000000000000000e+00  0.0